
Host: CMDADMINs-Air

Timers On : Mon Nov 13 16:32:14 2023
Timers Off: Mon Nov 13 16:32:14 2023

Wall Time:        0.17 seconds

                                                       Time (seconds)
Module                                       User      System        Wall        Calls

--------------------------------------------------------------------------------------

**************************************************************************************

Host: CMDADMINs-Air

Timers On : Mon Nov 13 16:34:15 2023
Timers Off: Mon Nov 13 16:34:16 2023

Wall Time:        0.16 seconds

                                                       Time (seconds)
Module                                       User      System        Wall        Calls

--------------------------------------------------------------------------------------

**************************************************************************************

Host: CMDADMINs-Air

Timers On : Mon Nov 13 16:35:32 2023
Timers Off: Mon Nov 13 16:35:32 2023

Wall Time:        0.30 seconds

                                                       Time (seconds)
Module                                       User      System        Wall        Calls

--------------------------------------------------------------------------------------

**************************************************************************************

Host: CMDADMINs-Air

Timers On : Mon Nov 13 16:35:36 2023
Timers Off: Mon Nov 13 16:35:37 2023

Wall Time:        0.54 seconds

                                                       Time (seconds)
Module                                       User      System        Wall        Calls

--------------------------------------------------------------------------------------

**************************************************************************************

Host: CMDADMINs-Air

Timers On : Mon Nov 13 16:35:35 2023
Timers Off: Mon Nov 13 16:35:37 2023

Wall Time:        1.58 seconds

                                                       Time (seconds)
Module                                       User      System        Wall        Calls

--------------------------------------------------------------------------------------

**************************************************************************************

Host: CMDADMINs-Air

Timers On : Mon Nov 13 16:39:38 2023
Timers Off: Mon Nov 13 16:39:39 2023

Wall Time:        0.53 seconds

                                                       Time (seconds)
Module                                       User      System        Wall        Calls

--------------------------------------------------------------------------------------

**************************************************************************************

Host: CMDADMINs-Air

Timers On : Mon Nov 13 16:39:37 2023
Timers Off: Mon Nov 13 16:39:39 2023

Wall Time:        1.74 seconds

                                                       Time (seconds)
Module                                       User      System        Wall        Calls

--------------------------------------------------------------------------------------

**************************************************************************************
